; Topology file generated by 
; CHARMM General Force Field (CGenFF) program version 4.0
; For use with CGenFF topology and parameter files version 5.0
; Generated on 2026-03-26 15:41:25 (user = unknown)
;
; Include forcefield parameters
#include "./charmm36.ff/forcefield.itp"
;
; Include ligand specific parameters
# include "./charmm36.ff/asp_ffbonded.itp"
;
[ moleculetype ]
; Name            nrexcl
Other               3
;
[ atoms ]
;   nr       type  resnr residue  atom   cgnr     charge       mass  typeB    chargeB      massB
; residue   1 asp rtp asp  q -0.0
     1     CG2R61      1    asp     C1      1     -0.175     12.011   ; qtot -0.175
     2     CG2R61      1    asp     C2      2     -0.118     12.011   ; qtot -0.118
     3     CG2R61      1    asp     C3      3      0.246     12.011   ; qtot 0.246
     4      OG302      1    asp     O4      4     -0.191    15.9994   ; qtot -0.191
     5     CG2R61      1    asp     C5      5     -0.113     12.011   ; qtot -0.113
     6     CG2R61      1    asp     C6      6     -0.113     12.011   ; qtot -0.113
     7      CG2O2      1    asp     C7      7      0.421     12.011   ; qtot 0.421
     8     CG2R61      1    asp     C8      8     -0.113     12.011   ; qtot -0.113
     9      OG2D1      1    asp     O9      9     -0.431    15.9994   ; qtot -0.431
    10      OG311      1    asp    O10     10     -0.527    15.9994   ; qtot -0.527
    11      CG2O2      1    asp    C11     11      0.854     12.011   ; qtot 0.854
    12      OG2D1      1    asp    O12     12     -0.636    15.9994   ; qtot -0.636
    13      CG331      1    asp    C13     13     -0.264     12.011   ; qtot -0.264
    14      HGR61      1    asp    H14     14      0.116      1.008   ; qtot 0.116
    15      HGR61      1    asp    H15     15      0.116      1.008   ; qtot 0.116
    16      HGR61      1    asp    H16     16      0.116      1.008   ; qtot 0.116
    17      HGR61      1    asp    H17     17      0.116      1.008   ; qtot 0.116
    18       HGP1      1    asp    H18     18      0.426      1.008   ; qtot 0.426
    19       HGA3      1    asp    H19     19       0.09      1.008   ; qtot 0.09
    20       HGA3      1    asp    H20     20       0.09      1.008   ; qtot 0.09
    21       HGA3      1    asp    H21     21       0.09      1.008   ; qtot 0.09

[ bonds ]
;  ai    aj funct            c0            c1            c2            c3
    1     2     1
    3     1     1
    1     4     1
    2     5     1
    6     3     1
    3     7     1
    4    11     1
    5     8     1
    8     6     1
    7     9     1
    7    10     1
   11    12     1
   11    13     1
    2    14     1
    5    15     1
    6    16     1
    8    17     1
   10    18     1
   13    19     1
   13    20     1
   13    21     1

[ pairs ]
;  ai    aj funct            c0            c1            c2            c3
    1     8     1
    1     9     1
    1    10     1
    1    12     1
    1    13     1
    1    15     1
    1    16     1
    2     6     1
    2     7     1
    2    11     1
    2    17     1
    3     5     1
    3    11     1
    3    14     1
    3    17     1
    3    18     1
    4     5     1
    4     6     1
    4     7     1
    4    14     1
    4    19     1
    4    20     1
    4    21     1
    5    16     1
    6     9     1
    6    10     1
    6    15     1
    7     8     1
    7    16     1
    8    14     1
    9    18     1
   12    19     1
   12    20     1
   12    21     1
   14    15     1
   15    17     1
   16    17     1

[ angles ]
;  ai    aj    ak funct            c0            c1            c2            c3
    2     1     3     5
    2     1     4     5
    3     1     4     5
    1     2     5     5
    1     2    14     5
    5     2    14     5
    1     3     6     5
    1     3     7     5
    6     3     7     5
    1     4    11     5
    2     5     8     5
    2     5    15     5
    8     5    15     5
    3     6     8     5
    3     6    16     5
    8     6    16     5
    3     7     9     5
    3     7    10     5
    9     7    10     5
    5     8     6     5
    5     8    17     5
    6     8    17     5
    7    10    18     5
    4    11    12     5
    4    11    13     5
   12    11    13     5
   11    13    19     5
   11    13    20     5
   11    13    21     5
   19    13    20     5
   19    13    21     5
   20    13    21     5

[ dihedrals ]
;  ai    aj    ak    al funct            c0            c1            c2            c3            c4            c5
    3     1     2     5     9
    3     1     2    14     9
    4     1     2     5     9
    4     1     2    14     9
    6     3     1     2     9
    6     3     1     4     9
    7     3     1     2     9
    7     3     1     4     9
    2     1     4    11     9
    3     1     4    11     9
    1     2     5     8     9
    1     2     5    15     9
   14     2     5     8     9
   14     2     5    15     9
    8     6     3     1     9
    8     6     3     7     9
   16     6     3     1     9
   16     6     3     7     9
    1     3     7     9     9
    1     3     7    10     9
    6     3     7     9     9
    6     3     7    10     9
    1     4    11    12     9
    1     4    11    13     9
    2     5     8     6     9
    2     5     8    17     9
   15     5     8     6     9
   15     5     8    17     9
    5     8     6     3     9
    5     8     6    16     9
   17     8     6     3     9
   17     8     6    16     9
    3     7    10    18     9
    9     7    10    18     9
    4    11    13    19     9
    4    11    13    20     9
    4    11    13    21     9
   12    11    13    19     9
   12    11    13    20     9
   12    11    13    21     9

[ dihedrals ]
;  ai    aj    ak    al funct            c0            c1            c2            c3            c4            c5
    7     3     9    10     2
   11    13    12     4     2



; Include Position restraint file
#ifdef POSRES
#include "posre.itp"
#endif

; Include water topology
#include "./charmm36.ff/tip3p.itp"

#ifdef POSRES_WATER
; Position restraint for each water oxygen
[ position_restraints ]
;  i funct       fcx        fcy        fcz
   1    1       1000       1000       1000
#endif

; Include topology for ions
#include "./charmm36.ff/ions.itp"

[ system ]
; Name
    Ligand

[ molecules ]
; Compound        #mols
Other           1
